# vtk DataFile Version 3.0
DiscoGMPI partitioned tetra mesh
ASCII
DATASET UNSTRUCTURED_GRID
POINTS 31 double
0.0 0.0 1.0
0.0 0.0 0.0
0.0 1.0 1.0
0.0 1.0 0.0
0.0 0.0 0.4999999999999986
0.0 0.4999999999999986 1.0
0.0 1.0 0.4999999999999986
0.0 0.4999999999999986 0.0
0.4999999999999986 0.0 0.0
0.4999999999999986 0.0 1.0
0.4999999999999986 1.0 0.0
0.4999999999999986 1.0 1.0
0.0 0.7386115160349848 0.7386115160349848
0.0 0.3749999999999994 0.6250000000000001
0.0 0.6491435860058306 0.357476919339164
0.0 0.2812500000000007 0.2812500000000007
0.3749999999999993 0.0 0.625
0.6437499999999995 0.0 0.352083333333333
0.2812500000000005 0.0 0.2812500000000004
0.3749999999999993 1.0 0.625
0.6437499999999995 1.0 0.352083333333333
0.2812500000000005 1.0 0.2812500000000004
0.7062499999999995 0.7062499999999994 0.0
0.3749999999999994 0.6250000000000001 0.0
0.6437499999999996 0.3520833333333331 0.0
0.2812500000000007 0.2812500000000007 0.0
0.7062499999999995 0.7062499999999994 1.0
0.3749999999999994 0.6250000000000001 1.0
0.6437499999999996 0.3520833333333331 1.0
0.2812500000000007 0.2812500000000007 1.0
0.4263392857142864 0.4263392857142861 0.4263392857142864
CELLS 51 255
4 19 26 27 30
4 12 19 27 30
4 19 12 14 30
4 23 20 21 30
4 29 28 16 30
4 12 27 13 30
4 18 8 25 24
4 21 19 14 30
4 21 20 19 30
4 29 27 28 30
4 7 15 25 23
4 4 18 15 13
4 18 24 25 30
4 27 29 13 30
4 18 15 13 30
4 23 15 25 30
4 23 21 14 30
4 13 29 16 30
4 12 13 14 30
4 23 7 15 14
4 18 25 15 30
4 15 23 14 30
4 16 13 0 29
4 12 19 2 27
4 4 18 13 16
4 14 12 19 6
4 21 3 23 14
4 29 9 16 28
4 23 21 20 10
4 18 13 16 30
4 19 11 27 26
4 12 27 5 13
4 19 21 14 6
4 13 27 5 29
4 10 20 23 22
4 11 2 19 27
4 13 0 4 16
4 7 23 3 14
4 25 1 18 15
4 23 3 21 10
4 5 0 13 29
4 9 16 0 29
4 27 2 12 5
4 12 19 6 2
4 15 25 1 7
4 1 18 8 25
4 1 4 18 15
4 14 21 3 6
4 15 14 13 30
4 25 24 23 30
4 16 17 18 30
CELL_TYPES 51
10
10
10
10
10
10
10
10
10
10
10
10
10
10
10
10
10
10
10
10
10
10
10
10
10
10
10
10
10
10
10
10
10
10
10
10
10
10
10
10
10
10
10
10
10
10
10
10
10
10
10
CELL_DATA 51
SCALARS partition_id int 1
LOOKUP_TABLE default
1
1
1
1
1
1
1
1
1
1
1
1
1
1
1
1
1
1
1
1
1
1
1
1
1
1
1
1
1
1
1
1
1
1
1
1
1
1
1
1
1
1
1
1
1
1
1
1
1
1
1
