# vtk DataFile Version 3.0
DiscoGMPI partitioned tetra mesh
ASCII
DATASET UNSTRUCTURED_GRID
POINTS 45 double
0.0 0.0 1.0
0.0 0.0 0.0
0.0 1.0 1.0
0.0 1.0 0.0
1.0 0.0 1.0
1.0 0.0 0.0
1.0 1.0 1.0
1.0 1.0 0.0
0.0 0.0 0.4999999999999986
0.0 0.4999999999999986 1.0
0.0 1.0 0.4999999999999986
0.0 0.4999999999999986 0.0
1.0 0.0 0.4999999999999986
1.0 0.4999999999999986 1.0
1.0 1.0 0.4999999999999986
1.0 0.4999999999999986 0.0
0.4999999999999986 0.0 0.0
0.4999999999999986 0.0 1.0
0.4999999999999986 1.0 0.0
0.4999999999999986 1.0 1.0
0.0 0.7386115160349848 0.7386115160349848
0.0 0.3749999999999994 0.6250000000000001
0.0 0.6491435860058306 0.357476919339164
0.0 0.2812500000000007 0.2812500000000007
1.0 0.7386115160349848 0.7386115160349848
1.0 0.3749999999999994 0.6250000000000001
1.0 0.6491435860058306 0.357476919339164
1.0 0.2812500000000007 0.2812500000000007
0.7062499999999995 0.0 0.7062499999999994
0.3749999999999993 0.0 0.625
0.6437499999999995 0.0 0.352083333333333
0.2812500000000005 0.0 0.2812500000000004
0.7062499999999995 1.0 0.7062499999999994
0.3749999999999993 1.0 0.625
0.6437499999999995 1.0 0.352083333333333
0.2812500000000005 1.0 0.2812500000000004
0.7062499999999995 0.7062499999999994 0.0
0.3749999999999994 0.6250000000000001 0.0
0.6437499999999996 0.3520833333333331 0.0
0.2812500000000007 0.2812500000000007 0.0
0.7062499999999995 0.7062499999999994 1.0
0.3749999999999994 0.6250000000000001 1.0
0.6437499999999996 0.3520833333333331 1.0
0.2812500000000007 0.2812500000000007 1.0
0.4263392857142864 0.4263392857142861 0.4263392857142864
CELLS 100 500
4 32 24 40 44
4 32 26 24 44
4 40 24 25 44
4 40 33 32 44
4 32 34 26 44
4 42 40 25 44
4 25 24 26 44
4 33 40 41 44
4 33 34 32 44
4 41 40 42 44
4 34 36 26 44
4 20 33 41 44
4 42 25 28 44
4 26 38 27 44
4 33 20 22 44
4 36 38 26 44
4 37 34 35 44
4 43 42 29 44
4 20 41 21 44
4 31 16 39 38
4 27 30 25 44
4 35 33 22 44
4 25 26 27 44
4 35 34 33 44
4 43 41 42 44
4 25 30 28 44
4 34 37 36 44
4 29 42 28 44
4 11 23 39 37
4 8 31 23 21
4 31 38 39 44
4 41 43 21 44
4 32 24 26 14
4 31 23 21 44
4 37 23 39 44
4 38 30 27 44
4 40 13 25 24
4 33 19 40 32
4 37 35 22 44
4 21 43 29 44
4 31 16 38 30
4 20 21 22 44
4 37 11 23 22
4 31 39 23 44
4 31 30 38 44
4 27 26 15 38
4 34 32 26 14
4 23 37 22 44
4 29 21 0 43
4 20 33 2 41
4 26 36 15 38
4 8 31 21 29
4 13 25 42 40
4 30 38 27 5
4 22 20 33 10
4 35 3 37 22
4 26 34 7 36
4 30 27 25 12
4 42 28 25 4
4 43 17 29 42
4 37 35 34 18
4 31 21 29 44
4 25 28 30 12
4 33 19 41 40
4 20 41 9 21
4 33 35 22 10
4 21 41 9 43
4 42 17 29 28
4 18 34 37 36
4 36 37 38 44
4 28 30 29 44
4 19 2 33 41
4 21 0 8 29
4 11 37 3 22
4 4 25 42 13
4 26 34 14 7
4 16 38 30 5
4 39 1 31 23
4 15 27 38 5
4 12 30 27 5
4 37 3 35 18
4 9 0 21 43
4 17 29 0 43
4 36 7 26 15
4 41 2 20 9
4 20 33 10 2
4 28 25 4 12
4 32 6 40 24
4 18 7 34 36
4 23 39 1 11
4 1 31 16 39
4 1 8 31 23
4 22 35 3 10
4 28 42 17 4
4 6 40 19 32
4 13 40 6 24
4 24 32 6 14
4 23 22 21 44
4 39 38 37 44
4 29 30 31 44
CELL_TYPES 100
10
10
10
10
10
10
10
10
10
10
10
10
10
10
10
10
10
10
10
10
10
10
10
10
10
10
10
10
10
10
10
10
10
10
10
10
10
10
10
10
10
10
10
10
10
10
10
10
10
10
10
10
10
10
10
10
10
10
10
10
10
10
10
10
10
10
10
10
10
10
10
10
10
10
10
10
10
10
10
10
10
10
10
10
10
10
10
10
10
10
10
10
10
10
10
10
10
10
10
10
CELL_DATA 100
SCALARS partition_id int 1
LOOKUP_TABLE default
0
0
0
0
0
0
0
1
0
0
0
1
0
0
1
0
1
1
1
1
0
1
0
1
1
0
0
0
1
1
1
1
0
1
1
0
0
0
1
1
0
1
1
1
0
0
0
1
1
1
0
1
0
0
1
1
0
0
0
1
1
1
0
1
1
1
1
0
1
0
0
1
1
1
0
0
0
1
0
0
1
1
1
0
1
1
0
0
0
1
1
1
1
0
0
0
0
1
1
1
