# vtk DataFile Version 3.0
DiscoGMPI partitioned tetra mesh
ASCII
DATASET UNSTRUCTURED_GRID
POINTS 30 double
1.0 0.0 1.0
1.0 0.0 0.0
1.0 1.0 1.0
1.0 1.0 0.0
1.0 0.0 0.4999999999999986
1.0 0.4999999999999986 1.0
1.0 1.0 0.4999999999999986
1.0 0.4999999999999986 0.0
0.4999999999999986 0.0 0.0
0.4999999999999986 0.0 1.0
0.4999999999999986 1.0 0.0
0.4999999999999986 1.0 1.0
1.0 0.7386115160349848 0.7386115160349848
1.0 0.3749999999999994 0.6250000000000001
1.0 0.6491435860058306 0.357476919339164
1.0 0.2812500000000007 0.2812500000000007
0.7062499999999995 0.0 0.7062499999999994
0.3749999999999993 0.0 0.625
0.6437499999999995 0.0 0.352083333333333
0.2812500000000005 0.0 0.2812500000000004
0.7062499999999995 1.0 0.7062499999999994
0.3749999999999993 1.0 0.625
0.6437499999999995 1.0 0.352083333333333
0.7062499999999995 0.7062499999999994 0.0
0.3749999999999994 0.6250000000000001 0.0
0.6437499999999996 0.3520833333333331 0.0
0.7062499999999995 0.7062499999999994 1.0
0.3749999999999994 0.6250000000000001 1.0
0.6437499999999996 0.3520833333333331 1.0
0.4263392857142864 0.4263392857142861 0.4263392857142864
CELLS 49 245
4 20 12 26 29
4 20 14 12 29
4 26 12 13 29
4 26 21 20 29
4 20 22 14 29
4 28 26 13 29
4 13 12 14 29
4 21 22 20 29
4 27 26 28 29
4 22 23 14 29
4 28 13 16 29
4 14 25 15 29
4 23 25 14 29
4 15 18 13 29
4 13 14 15 29
4 13 18 16 29
4 22 24 23 29
4 17 28 16 29
4 20 12 14 6
4 25 18 15 29
4 26 5 13 12
4 21 11 26 20
4 19 8 25 18
4 19 18 25 29
4 15 14 7 25
4 22 20 14 6
4 14 23 7 25
4 5 13 28 26
4 18 25 15 1
4 14 22 3 23
4 18 15 13 4
4 28 16 13 0
4 13 16 18 4
4 28 9 17 16
4 23 24 25 29
4 16 18 17 29
4 0 13 28 5
4 14 22 6 3
4 8 25 18 1
4 7 15 25 1
4 4 18 15 1
4 23 3 14 7
4 16 13 0 4
4 20 2 26 12
4 10 3 22 23
4 16 28 9 0
4 2 26 11 20
4 5 26 2 12
4 12 20 2 6
CELL_TYPES 49
10
10
10
10
10
10
10
10
10
10
10
10
10
10
10
10
10
10
10
10
10
10
10
10
10
10
10
10
10
10
10
10
10
10
10
10
10
10
10
10
10
10
10
10
10
10
10
10
10
CELL_DATA 49
SCALARS partition_id int 1
LOOKUP_TABLE default
0
0
0
0
0
0
0
0
0
0
0
0
0
0
0
0
0
0
0
0
0
0
0
0
0
0
0
0
0
0
0
0
0
0
0
0
0
0
0
0
0
0
0
0
0
0
0
0
0
